4
Lattice="30 0 0 0 30 0 0 0 1" Properties=id:I:1:position:R:3 Time=0
0 0 0 0
1 10 0 0
2 0 10 0
3 10 10 0
4
Lattice="30 0 0 0 30 0 0 0 1" Properties=id:I:1:position:R:3 Time=0
0 0 0 0
1 20 0 0
2 0 20 0
3 20 20 0
4
Lattice="30 0 0 0 30 0 0 0 1" Properties=id:I:1:position:R:3 Time=0
0 0 0 0
1 30 0 0
2 0 30 0
3 30 30 0
